TITLE = "Cruise Flight"
VARIABLES="M","A","W","Freq"
ZONE T="3", I=   3, J=   3, F=BLOCK
0.753500
0.753500
0.753500
0.753500
0.753500
0.753500
0.753500
0.753500
0.753500
32666.665000
32666.665000
32666.665000
36000.000000
36000.000000
36000.000000
39333.335000
39333.335000
39333.335000
31466.665000
39000.000000
46533.335000
31466.665000
39000.000000
46533.335000
31466.665000
39000.000000
46533.335000
0.005700
0.027360
0.004940
0.017955
0.086184
0.015561
0.004845
0.023256
0.004199
TITLE = "Cruise Flight"
VARIABLES="M","A","W","Freq"
ZONE T="3", I=   3, J=   3, F=BLOCK
0.780000
0.780000
0.780000
0.780000
0.780000
0.780000
0.780000
0.780000
0.780000
32666.665000
32666.665000
32666.665000
36000.000000
36000.000000
36000.000000
39333.335000
39333.335000
39333.335000
31466.665000
39000.000000
46533.335000
31466.665000
39000.000000
46533.335000
31466.665000
39000.000000
46533.335000
0.018000
0.086400
0.015600
0.056700
0.272160
0.049140
0.015300
0.073440
0.013260
TITLE = "Cruise Flight"
VARIABLES="M","A","W","Freq"
ZONE T="3", I=   3, J=   3, F=BLOCK
0.806500
0.806500
0.806500
0.806500
0.806500
0.806500
0.806500
0.806500
0.806500
32666.665000
32666.665000
32666.665000
36000.000000
36000.000000
36000.000000
39333.335000
39333.335000
39333.335000
31466.665000
39000.000000
46533.335000
31466.665000
39000.000000
46533.335000
31466.665000
39000.000000
46533.335000
0.006300
0.030240
0.005460
0.019845
0.095256
0.017199
0.005355
0.025704
0.004641
